TITLE = "Example blade surface from Carlos Ventura and Fluent"
VARIABLES  = X, Y, Z, "pressure"
ZONE T="block-2-blade-wall-1", N=2205, E=2112, ET=QUADRILATERAL, F=FEBLOCK

 6.09836e-004 6.00476e-004 -1.30960e-008 -1.78210e-009 5.90972e-004
 -1.60074e-007 5.81175e-004 -5.78380e-007 5.70941e-004 -1.40368e-006
 5.60124e-004 -2.77164e-006 5.48592e-004 -4.81952e-006 5.36239e-004
 -7.68768e-006 5.22967e-004 -1.15168e-005 5.08674e-004 -1.64478e-005
 4.93259e-004 -2.26210e-005 4.76594e-004 -3.01741e-005 4.58515e-004
 -3.92412e-005 4.38855e-004 -4.99564e-005 4.17449e-004 -6.24538e-005
 3.94130e-004 -7.68685e-005 3.68738e-004 -9.33453e-005 3.41119e-004
 -1.12034e-004 3.11117e-004 -1.33084e-004 2.78579e-004 -1.56646e-004
 2.43363e-004 -1.82861e-004 2.05393e-004 -2.11831e-004 1.64614e-004
 -2.43650e-004 1.20968e-004 -2.78413e-004 7.43993e-005 -3.16214e-004
 2.47378e-005 -3.57246e-004 -2.84394e-005 -4.01883e-004 -8.55910e-005
 -4.50515e-004 -1.47176e-004 -5.03532e-004 -2.13623e-004 -5.61287e-004
 -2.84672e-004 -6.23451e-004 -3.59327e-004 -6.89105e-004 -4.36552e-004
 -7.57308e-004 -5.15313e-004 -8.27121e-004 -5.94621e-004 -8.97657e-004
 -6.74060e-004 -9.68564e-004 -7.53611e-004 -1.03980e-003 -8.33261e-004
 -1.11133e-003 -9.13000e-004 -1.18312e-003 -9.92815e-004 -1.25513e-003
 -1.07269e-003 -1.32732e-003 -1.15263e-003 -1.39965e-003 -1.23260e-003
 -1.47210e-003 -1.31259e-003 -1.54461e-003 -1.39261e-003 -1.61717e-003
 1.21963e-003 1.20099e-003 1.18220e-003 1.16310e-003 1.14353e-003
 1.12333e-003 1.10239e-003 1.08064e-003 1.05800e-003 1.03442e-003
 1.00985e-003 9.84152e-004 9.57138e-004 9.28611e-004 8.98372e-004
 8.66225e-004 8.31997e-004 7.95529e-004 7.56665e-004 7.15247e-004
 6.71131e-004 6.24264e-004 5.74628e-004 5.22200e-004 4.66963e-004
 4.08778e-004 3.47178e-004 2.81638e-004 2.11631e-004 1.36643e-004
 5.67877e-005 -2.68863e-005 -1.13256e-004 -2.01199e-004 -2.89609e-004
 -3.77896e-004 -4.66043e-004 -5.54065e-004 -6.41979e-004 -7.29800e-004
 -8.17542e-004 -9.05222e-004 -9.92854e-004 -1.08045e-003 -1.16804e-003
 1.33661e-003 1.31618e-003 1.29560e-003 1.27472e-003 1.25338e-003
 1.23143e-003 1.20875e-003 1.18527e-003 1.16096e-003 1.13575e-003
 1.10959e-003 1.08237e-003 1.05387e-003 1.02387e-003 9.92160e-004
 9.58514e-004 9.22758e-004 8.84745e-004 8.44329e-004 8.01362e-004
 7.55710e-004 7.07326e-004 6.56208e-004 6.02349e-004 5.45746e-004
 4.86294e-004 4.23496e-004 3.56764e-004 2.85509e-004 2.09144e-004
 1.27615e-004 4.19825e-005 -4.65544e-005 -1.36795e-004 -2.27545e-004
 -3.18041e-004 -4.08245e-004 -4.98189e-004 -5.87905e-004 -6.77426e-004
 -7.66785e-004 -8.56013e-004 -9.45142e-004 -1.03421e-003 -1.12323e-003
 1.43258e-003 1.41074e-003 1.38874e-003 1.36643e-003 1.34366e-003
 1.32027e-003 1.29614e-003 1.27123e-003 1.24550e-003 1.21890e-003
 1.19141e-003 1.16290e-003 1.13314e-003 1.10189e-003 1.06890e-003
 1.03394e-003 9.96816e-004 9.57416e-004 9.15620e-004 8.71309e-004
 8.24370e-004 7.74757e-004 7.22464e-004 6.67485e-004 6.09814e-004
 5.49367e-004 4.85644e-004 4.18002e-004 3.45798e-004 2.68390e-004
 1.85535e-004 9.82468e-005 7.78437e-006 -8.45929e-005 -1.77626e-004
 -2.70370e-004 -3.62727e-004 -4.54738e-004 -5.46447e-004 -6.37897e-004
 -7.29131e-004 -8.20192e-004 -9.11122e-004 -1.00197e-003 -1.09276e-003
 1.51152e-003 1.48845e-003 1.46522e-003 1.44169e-003 1.41768e-003
 1.39305e-003 1.36768e-003 1.34152e-003 1.31455e-003 1.28673e-003
 1.25804e-003 1.22836e-003 1.19745e-003 1.16503e-003 1.13086e-003
 1.09466e-003 1.05626e-003 1.01557e-003 9.72517e-004 9.27007e-004
 8.78967e-004 8.28344e-004 7.75113e-004 7.19246e-004 6.60717e-004
 5.99449e-004 5.34965e-004 4.66599e-004 3.93681e-004 3.15542e-004
 2.31771e-004 1.43246e-004 5.12448e-005 -4.29568e-005 -1.38081e-004
 -2.33039e-004 -3.27617e-004 -4.21857e-004 -5.15801e-004 -6.09491e-004
 -7.02970e-004 -7.96278e-004 -8.89459e-004 -9.82554e-004 -1.07561e-003
 1.57644e-003 1.55210e-003 1.52763e-003 1.50289e-003 1.47775e-003
 1.45206e-003 1.42572e-003 1.39863e-003 1.37075e-003 1.34198e-003
 1.31227e-003 1.28149e-003 1.24940e-003 1.21575e-003 1.18032e-003
 1.14284e-003 1.10316e-003 1.06123e-003 1.01698e-003 9.70379e-004
 9.21368e-004 8.69892e-004 8.15887e-004 7.59287e-004 7.00028e-004
 6.38019e-004 5.72836e-004 5.03828e-004 4.30342e-004 3.51721e-004
 2.67451e-004 1.78181e-004 8.51415e-005 -1.04340e-005 -1.07312e-004
 -2.04347e-004 -3.01167e-004 -3.97792e-004 -4.94247e-004 -5.90556e-004
 -6.86742e-004 -7.82830e-004 -8.78843e-004 -9.74807e-004 -1.07075e-003
 1.62897e-003 1.60344e-003 1.57781e-003 1.55197e-003 1.52584e-003
 1.49930e-003 1.47225e-003 1.44455e-003 1.41605e-003 1.38662e-003
 1.35610e-003 1.32434e-003 1.29114e-003 1.25628e-003 1.21955e-003
 1.18076e-003 1.13976e-003 1.09654e-003 1.05108e-003 1.00338e-003
 9.53424e-004 9.01163e-004 8.46475e-004 7.89238e-004 7.29328e-004
 6.66614e-004 6.00730e-004 5.31082e-004 4.57068e-004 3.78082e-004
 2.93580e-004 2.03945e-004 1.10288e-004 1.37452e-005 -8.45498e-005
 -1.83493e-004 -2.82550e-004 -3.81693e-004 -4.80910e-004 -5.80190e-004
 -6.79524e-004 -7.78899e-004 -8.78304e-004 -9.77730e-004 -1.07716e-003
 1.67066e-003 1.64417e-003 1.61761e-003 1.59090e-003 1.56397e-003
 1.53674e-003 1.50911e-003 1.48090e-003 1.45190e-003 1.42190e-003
 1.39071e-003 1.35812e-003 1.32396e-003 1.28803e-003 1.25016e-003
 1.21016e-003 1.16793e-003 1.12347e-003 1.07683e-003 1.02803e-003
 9.77124e-004 9.24062e-004 8.68679e-004 8.10791e-004 7.50219e-004
 6.86777e-004 6.20145e-004 5.49804e-004 4.75221e-004 3.95861e-004
 3.11207e-004 2.21385e-004 1.27343e-004 3.00784e-005 -6.94088e-005
 -1.70125e-004 -2.71421e-004 -3.73191e-004 -4.75375e-004 -5.77914e-004
 -6.80748e-004 -7.83818e-004 -8.87064e-004 -9.90426e-004 -1.09385e-003
 1.70302e-003 1.67602e-003 1.64894e-003 1.62170e-003 1.59421e-003
 1.56639e-003 1.53815e-003 1.50929e-003 1.47961e-003 1.44892e-003
 1.41702e-003 1.38370e-003 1.34878e-003 1.31205e-003 1.27331e-003
 1.23239e-003 1.18914e-003 1.14361e-003 1.09589e-003 1.04606e-003
 9.94190e-004 9.40286e-004 8.84145e-004 8.25539e-004 7.64237e-004
 7.00010e-004 6.32560e-004 5.61446e-004 4.86204e-004 4.06371e-004
 3.21489e-004 2.31482e-004 1.37096e-004 3.91819e-005 -6.14106e-005
 -1.63831e-004 -2.67394e-004 -3.71895e-004 -4.77215e-004 -5.83238e-004
 -6.89845e-004 -7.96920e-004 -9.04345e-004 -1.01200e-003 -1.11977e-003
 1.72759e-003 1.70065e-003 1.67358e-003 1.64622e-003 1.61845e-003
 1.59012e-003 1.56110e-003 1.53128e-003 1.50057e-003 1.46886e-003
 1.43605e-003 1.40201e-003 1.36648e-003 1.32921e-003 1.28990e-003
 1.24830e-003 1.20421e-003 1.15771e-003 1.10896e-003 1.05810e-003
 1.00528e-003 9.50574e-004 8.93745e-004 8.34503e-004 7.72557e-004
 7.07615e-004 6.39365e-004 5.67434e-004 4.91433e-004 4.10972e-004
 3.25662e-004 2.35311e-004 1.40453e-004 4.17933e-005 -5.99644e-005
 -1.64115e-004 -2.70012e-004 -3.77351e-004 -4.85952e-004 -5.95633e-004
 -7.06215e-004 -8.17516e-004 -9.29357e-004 -1.04156e-003 -1.15393e-003
 1.74591e-003 1.71937e-003 1.69261e-003 1.66540e-003 1.63751e-003
 1.60873e-003 1.57886e-003 1.54791e-003 1.51593e-003 1.48295e-003
 1.44904e-003 1.41416e-003 1.37803e-003 1.34025e-003 1.30047e-003
 1.25831e-003 1.21348e-003 1.16608e-003 1.11635e-003 1.06451e-003
 1.01078e-003 9.55303e-004 8.97847e-004 8.38048e-004 7.75546e-004
 7.09977e-004 6.40987e-004 5.68246e-004 4.91436e-004 4.10238e-004
 3.24333e-004 2.33486e-004 1.38025e-004 3.85170e-005 -6.44712e-005
 -1.70373e-004 -2.78635e-004 -3.88884e-004 -5.00868e-004 -6.14339e-004
 -7.29049e-004 -8.44749e-004 -9.61191e-004 -1.07813e-003 -1.19531e-003
 1.75950e-003 1.73336e-003 1.70691e-003 1.67985e-003 1.65186e-003
 1.62264e-003 1.59196e-003 1.55990e-003 1.52663e-003 1.49235e-003
 1.45722e-003 1.42135e-003 1.38442e-003 1.34599e-003 1.30560e-003
 1.26282e-003 1.21727e-003 1.16905e-003 1.11843e-003 1.06568e-003
 1.01108e-003 9.54845e-004 8.96744e-004 8.36359e-004 7.73269e-004
 7.07054e-004 6.37304e-004 5.63713e-004 4.86032e-004 4.04016e-004
 3.17416e-004 2.26011e-004 1.29949e-004 2.96427e-005 -7.44905e-005
 -1.82032e-004 -2.92563e-004 -4.05705e-004 -5.21129e-004 -6.38508e-004
 -7.57515e-004 -8.77824e-004 -9.99109e-004 -1.12104e-003 -1.24330e-003
 1.76967e-003 1.74363e-003 1.71723e-003 1.69009e-003 1.66185e-003
 1.63213e-003 1.60067e-003 1.56758e-003 1.53314e-003 1.49762e-003
 1.46127e-003 1.42429e-003 1.38638e-003 1.34707e-003 1.30590e-003
 1.26237e-003 1.21608e-003 1.16707e-003 1.11564e-003 1.06206e-003
 1.00663e-003 9.49578e-004 8.90736e-004 8.29644e-004 7.65839e-004
 6.98864e-004 6.28264e-004 5.53735e-004 4.75098e-004 3.92176e-004
 3.04792e-004 2.12776e-004 1.16140e-004 1.51227e-005 -9.00235e-005
 -1.99046e-004 -3.11693e-004 -4.27668e-004 -5.46569e-004 -6.67976e-004
 -7.91473e-004 -9.16638e-004 -1.04306e-003 -1.17031e-003 -1.29797e-003
 1.77679e-003 1.75053e-003 1.72386e-003 1.69639e-003 1.66771e-003
 1.63742e-003 1.60521e-003 1.57121e-003 1.53574e-003 1.49909e-003
 1.46158e-003 1.42343e-003 1.38442e-003 1.34408e-003 1.30193e-003
 1.25754e-003 1.21045e-003 1.16068e-003 1.10847e-003 1.05409e-003
 9.97804e-004 9.39854e-004 8.80110e-004 8.18110e-004 7.53382e-004
 6.85453e-004 6.13854e-004 5.38265e-004 4.58562e-004 3.74632e-004
 2.86364e-004 1.93646e-004 9.64209e-005 -5.25565e-006 -1.11313e-004
 -2.21679e-004 -3.36284e-004 -4.54996e-004 -5.77383e-004 -7.02919e-004
 -8.31079e-004 -9.61337e-004 -1.09317e-003 -1.22604e-003 -1.35944e-003
 1.78102e-003 1.75422e-003 1.72701e-003 1.69896e-003 1.66968e-003
 1.63874e-003 1.60581e-003 1.57102e-003 1.53466e-003 1.49705e-003
 1.45848e-003 1.41921e-003 1.37905e-003 1.33757e-003 1.29434e-003
 1.24894e-003 1.20095e-003 1.15032e-003 1.09726e-003 1.04199e-003
 9.84746e-004 9.25740e-004 8.64894e-004 8.01765e-004 7.35889e-004
 6.66800e-004 5.94032e-004 5.17247e-004 4.36358e-004 3.51310e-004
 2.62047e-004 1.68513e-004 7.06416e-005 -3.16805e-005 -1.38577e-004
 -2.50172e-004 -3.66589e-004 -4.87909e-004 -6.13764e-004 -7.43507e-004
 -8.76490e-004 -1.01206e-003 -1.14958e-003 -1.28838e-003 -1.42783e-003
 1.78253e-003 1.75492e-003 1.72690e-003 1.69807e-003 1.66802e-003
 1.63636e-003 1.60272e-003 1.56722e-003 1.53012e-003 1.49167e-003
 1.45215e-003 1.41179e-003 1.37045e-003 1.32775e-003 1.28331e-003
 1.23676e-003 1.18772e-003 1.13610e-003 1.08205e-003 1.02576e-003
 9.67405e-004 9.07172e-004 8.45021e-004 7.80546e-004 7.13304e-004
 6.42849e-004 5.68739e-004 4.90619e-004 4.08422e-004 3.22142e-004
 2.31768e-004 1.37294e-004 3.86829e-005 -6.43068e-005 -1.72004e-004
 -2.84740e-004 -4.02842e-004 -5.26625e-004 -6.55899e-004 -7.89905e-004
 -9.27854e-004 -1.06896e-003 -1.21242e-003 -1.35745e-003 -1.50327e-003
 1.78149e-003 1.75283e-003 1.72379e-003 1.69399e-003 1.66303e-003
 1.63055e-003 1.59619e-003 1.56002e-003 1.52223e-003 1.48301e-003
 1.44258e-003 1.40112e-003 1.35853e-003 1.31449e-003 1.26870e-003
 1.22084e-003 1.17059e-003 1.11783e-003 1.06266e-003 1.00523e-003
 9.45643e-004 8.84041e-004 8.20410e-004 7.54391e-004 6.85577e-004
 6.13560e-004 5.37929e-004 4.58332e-004 3.74703e-004 2.87073e-004
 1.95473e-004 9.99312e-005 4.56760e-007 -1.03257e-004 -2.11749e-004
 -3.25565e-004 -4.45252e-004 -5.71351e-004 -7.03967e-004 -8.42272e-004
 -9.85314e-004 -1.13215e-003 -1.28182e-003 -1.43338e-003 -1.58588e-003
 1.77805e-003 1.74816e-003 1.71792e-003 1.68697e-003 1.65495e-003
 1.62152e-003 1.58636e-003 1.54945e-003 1.51092e-003 1.47091e-003
 1.42955e-003 1.38695e-003 1.34304e-003 1.29758e-003 1.25032e-003
 1.20101e-003 1.14941e-003 1.09538e-003 1.03897e-003 9.80258e-004
 9.19315e-004 8.56213e-004 7.90943e-004 7.23205e-004 6.52637e-004
 5.78874e-004 5.01551e-004 4.20336e-004 3.35151e-004 2.46056e-004
 1.53110e-004 5.63727e-005 -4.41070e-005 -1.48632e-004 -2.57943e-004
 -3.72811e-004 -4.94005e-004 -6.22294e-004 -7.58145e-004 -9.00761e-004
 -1.04901e-003 -1.20177e-003 -1.35790e-003 -1.51628e-003 -1.67578e-003
 1.77226e-003 1.74102e-003 1.70945e-003 1.67722e-003 1.64401e-003
 1.60949e-003 1.57335e-003 1.53555e-003 1.49614e-003 1.45519e-003
 1.41278e-003 1.36896e-003 1.32367e-003 1.27672e-003 1.22793e-003
 1.17710e-003 1.12404e-003 1.06862e-003 1.01084e-003 9.50714e-004
 8.88275e-004 8.23540e-004 7.56488e-004 6.86875e-004 6.14390e-004
 5.38718e-004 4.59547e-004 3.76576e-004 2.89716e-004 1.99042e-004
 1.04634e-004 6.57350e-006 -9.50623e-005 -2.00515e-004 -3.10700e-004
 -4.26618e-004 -5.49270e-004 -6.79658e-004 -8.18611e-004 -9.65528e-004
 -1.11908e-003 -1.27795e-003 -1.44079e-003 -1.60628e-003 -1.77309e-003
 1.76382e-003 1.73123e-003 1.69832e-003 1.66477e-003 1.63029e-003
 1.59454e-003 1.55725e-003 1.51832e-003 1.47778e-003 1.43567e-003
 1.39201e-003 1.34684e-003 1.30010e-003 1.25164e-003 1.20130e-003
 1.14891e-003 1.09432e-003 1.03740e-003 9.78112e-004 9.16440e-004
 8.52362e-004 7.85862e-004 7.16898e-004 6.45279e-004 5.70742e-004
 4.93022e-004 4.11857e-004 3.26988e-004 2.38315e-004 1.45922e-004
 4.99070e-005 -4.96327e-005 -1.52600e-004 -2.59142e-004 -3.70294e-004
 -4.87294e-004 -6.11383e-004 -7.43799e-004 -8.85708e-004 -1.03688e-003
 -1.19580e-003 -1.36093e-003 -1.53070e-003 -1.70357e-003 -1.87797e-003
 1.75237e-003 1.71842e-003 1.68416e-003 1.64927e-003 1.61345e-003
 1.57637e-003 1.53776e-003 1.49750e-003 1.45561e-003 1.41211e-003
 1.36703e-003 1.32038e-003 1.27211e-003 1.22208e-003 1.17015e-003
 1.11615e-003 1.05995e-003 1.00142e-003 9.40491e-004 8.77123e-004
 8.11273e-004 7.42898e-004 6.71943e-004 5.98249e-004 5.21589e-004
 4.41734e-004 3.58455e-004 2.71524e-004 1.80833e-004 8.64872e-005
 -1.13876e-005 -1.12664e-004 -2.17216e-004 -3.25078e-004 -4.37326e-004
 -5.55454e-004 -6.80954e-004 -8.15318e-004 -9.60020e-004 -1.11535e-003
 -1.27968e-003 -1.45120e-003 -1.62811e-003 -1.80862e-003 -1.99091e-003
 1.73754e-003 1.70221e-003 1.66657e-003 1.63029e-003 1.59305e-003
 1.55455e-003 1.51449e-003 1.47274e-003 1.42934e-003 1.38429e-003
 1.33763e-003 1.28937e-003 1.23947e-003 1.18779e-003 1.13418e-003
 1.07848e-003 1.02054e-003 9.60238e-004 8.97490e-004 8.32251e-004
 7.64472e-004 6.94102e-004 6.21088e-004 5.45289e-004 4.66486e-004
 3.84462e-004 2.98995e-004 2.09867e-004 1.16954e-004 2.03900e-005
 -7.96454e-005 -1.82973e-004 -2.89414e-004 -3.98881e-004 -5.12398e-004
 -6.31719e-004 -7.58614e-004 -8.94849e-004 -1.04219e-003 -1.20154e-003
 -1.37128e-003 -1.54932e-003 -1.73359e-003 -1.92200e-003 -2.11247e-003
 1.71897e-003 1.68222e-003 1.64514e-003 1.60741e-003 1.56870e-003
 1.52868e-003 1.48705e-003 1.44370e-003 1.39864e-003 1.35190e-003
 1.30351e-003 1.25350e-003 1.20184e-003 1.14837e-003 1.09294e-003
 1.03539e-003 9.75561e-004 9.13304e-004 8.48549e-004 7.81254e-004
 7.11378e-004 6.38880e-004 5.63715e-004 4.85757e-004 4.04778e-004
 3.20546e-004 2.32830e-004 1.41397e-004 4.60912e-005 -5.29217e-005
 -1.55391e-004 -2.61065e-004 -3.69694e-004 -4.81069e-004 -5.96059e-004
 -7.16673e-004 -8.44974e-004 -9.83025e-004 -1.13289e-003 -1.29608e-003
 -1.47122e-003 -1.65589e-003 -1.84772e-003 -2.04430e-003 -2.24326e-003
 1.69630e-003 1.65807e-003 1.61950e-003 1.58025e-003 1.53998e-003
 1.49837e-003 1.45509e-003 1.41001e-003 1.36316e-003 1.31459e-003
 1.26432e-003 1.21239e-003 1.15878e-003 1.10334e-003 1.04591e-003
 9.86313e-004 9.24394e-004 8.59996e-004 7.93050e-004 7.23528e-004
 6.51403e-004 5.76647e-004 4.99231e-004 4.19041e-004 3.35830e-004
 2.49338e-004 1.59304e-004 6.54688e-005 -3.23695e-005 -1.34029e-004
 -2.39174e-004 -3.47465e-004 -4.58566e-004 -5.72151e-004 -6.88848e-004
 -8.10881e-004 -9.40626e-004 -1.08046e-003 -1.23276e-003 -1.39962e-003
 -1.58010e-003 -1.77150e-003 -1.97108e-003 -2.17611e-003 -2.38385e-003
 1.66918e-003 1.62939e-003 1.58925e-003 1.54840e-003 1.50651e-003
 1.46320e-003 1.41816e-003 1.37124e-003 1.32249e-003 1.27193e-003
 1.21962e-003 1.16559e-003 1.10983e-003 1.05219e-003 9.92529e-004
 9.30667e-004 8.66446e-004 7.99711e-004 7.30395e-004 6.58484e-004
 5.83964e-004 5.06822e-004 4.27044e-004 3.44533e-004 2.59015e-004
 1.70191e-004 7.77640e-005 -1.85653e-005 -1.19054e-004 -2.23529e-004
 -3.31560e-004 -4.42711e-004 -5.56547e-004 -6.72636e-004 -7.91299e-004
 -9.14903e-004 -1.04616e-003 -1.18777e-003 -1.34245e-003 -1.51278e-003
 -1.69854e-003 -1.89675e-003 -2.10428e-003 -2.31801e-003 -2.53483e-003
 1.63724e-003 1.59581e-003 1.55401e-003 1.51147e-003 1.46782e-003
 1.42270e-003 1.37575e-003 1.32683e-003 1.27598e-003 1.22325e-003
 1.16870e-003 1.11236e-003 1.05426e-003 9.94246e-004 9.32165e-004
 8.67854e-004 8.01153e-004 7.31906e-004 6.60048e-004 5.85581e-004
 5.08508e-004 4.28833e-004 3.46560e-004 2.61615e-004 1.73696e-004
 8.24588e-005 -1.24425e-005 -1.11353e-004 -2.14591e-004 -3.22023e-004
 -4.33123e-004 -5.47351e-004 -6.64166e-004 -7.83029e-004 -9.03939e-004
 -1.02929e-003 -1.16213e-003 -1.30554e-003 -1.46255e-003 -1.63619e-003
 -1.82715e-003 -2.03222e-003 -2.24788e-003 -2.47058e-003 -2.69679e-003
 1.60002e-003 1.55686e-003 1.51331e-003 1.46897e-003 1.42344e-003
 1.37635e-003 1.32731e-003 1.27616e-003 1.22299e-003 1.16784e-003
 1.11082e-003 1.05197e-003 9.91338e-004 9.28787e-004 8.64149e-004
 7.97256e-004 7.27940e-004 6.56038e-004 5.81483e-004 5.04297e-004
 4.24505e-004 3.42134e-004 2.57210e-004 1.69689e-004 7.92458e-005
 -1.45182e-005 -1.12001e-004 -2.13602e-004 -3.19706e-004 -4.30249e-004
 -5.44609e-004 -6.62131e-004 -7.82160e-004 -9.04038e-004 -1.02746e-003
 -1.15471e-003 -1.28920e-003 -1.43436e-003 -1.59363e-003 -1.77043e-003
 -1.96641e-003 -2.17839e-003 -2.40236e-003 -2.63430e-003 -2.87022e-003
 1.55692e-003 1.51190e-003 1.46645e-003 1.42017e-003 1.37261e-003
 1.32337e-003 1.27203e-003 1.21845e-003 1.16271e-003 1.10492e-003
 1.04520e-003 9.83646e-004 9.20320e-004 8.55090e-004 7.87775e-004
 7.18190e-004 6.46153e-004 5.71485e-004 4.94107e-004 4.14060e-004
 3.31390e-004 2.46144e-004 1.58368e-004 6.80509e-005 -2.51411e-005
 -1.21656e-004 -2.21944e-004 -3.26451e-004 -4.35621e-004 -5.49483e-004
 -6.67330e-004 -7.88382e-004 -9.11858e-004 -1.03698e-003 -1.16317e-003
 -1.29244e-003 -1.42859e-003 -1.57545e-003 -1.73685e-003 -1.91662e-003
 -2.11738e-003 -2.33623e-003 -2.56862e-003 -2.81002e-003 -3.05590e-003
 1.50729e-003 1.46018e-003 1.41262e-003 1.36416e-003 1.31436e-003
 1.26277e-003 1.20894e-003 1.15273e-003 1.09426e-003 1.03366e-003
 9.71090e-004 9.06676e-004 8.40519e-004 7.72484e-004 7.02369e-004
 6.29970e-004 5.55084e-004 4.77511e-004 3.97155e-004 3.14070e-004
 2.28322e-004 1.39976e-004 4.90972e-005 -4.42933e-005 -1.40520e-004
 -2.40073e-004 -3.43441e-004 -4.51113e-004 -5.63579e-004 -6.80972e-004
 -8.02526e-004 -9.27336e-004 -1.05450e-003 -1.18310e-003 -1.31234e-003
 -1.44385e-003 -1.58175e-003 -1.73028e-003 -1.89371e-003 -2.07626e-003
 -2.28145e-003 -2.50697e-003 -2.74773e-003 -2.99863e-003 -3.25458e-003
 1.45049e-003 1.40097e-003 1.35098e-003 1.30006e-003 1.24774e-003
 1.19356e-003 1.13706e-003 1.07807e-003 1.01674e-003 9.53227e-004
 8.87702e-004 8.20325e-004 7.51217e-004 6.80244e-004 6.07182e-004
 5.31807e-004 4.53896e-004 3.73227e-004 2.89683e-004 2.03330e-004
 1.14253e-004 2.25344e-005 -7.17401e-005 -1.68518e-004 -2.68099e-004
 -3.71002e-004 -4.77749e-004 -5.88862e-004 -7.04863e-004 -8.25996e-004
 -9.51469e-004 -1.08026e-003 -1.21133e-003 -1.34367e-003 -1.47628e-003
 -1.61029e-003 -1.75010e-003 -1.90038e-003 -2.06578e-003 -2.25098e-003
 -2.46024e-003 -2.69216e-003 -2.94115e-003 -3.20148e-003 -3.46746e-003
 1.38574e-003 1.33344e-003 1.28067e-003 1.22695e-003 1.17181e-003
 1.11478e-003 1.05541e-003 9.93492e-004 9.29191e-004 8.62671e-004
 7.94100e-004 7.23648e-004 6.51443e-004 5.77357e-004 5.01153e-004
 4.22594e-004 3.41443e-004 2.57465e-004 1.70521e-004 8.06805e-005
 -1.19609e-005 -1.07307e-004 -2.05261e-004 -3.05749e-004 -4.09028e-004
 -5.15631e-004 -6.26098e-004 -7.40968e-004 -8.60781e-004 -9.85871e-004
 -1.11547e-003 -1.24845e-003 -1.38366e-003 -1.51998e-003 -1.65627e-003
 -1.79313e-003 -1.93509e-003 -2.08723e-003 -2.25464e-003 -2.44238e-003
 -2.65537e-003 -2.89336e-003 -3.15033e-003 -3.41993e-003 -3.69580e-003
 1.31199e-003 1.25657e-003 1.20067e-003 1.14383e-003 1.08558e-003
 1.02546e-003 9.63010e-004 8.98021e-004 8.30629e-004 7.60989e-004
 6.89254e-004 6.15579e-004 5.40087e-004 4.62658e-004 3.83060e-004
 3.01058e-004 2.16416e-004 1.28902e-004 3.83598e-005 -5.51535e-005
 -1.51548e-004 -2.50732e-004 -3.52617e-004 -4.57122e-004 -5.64459e-004
 -6.75148e-004 -7.89721e-004 -9.08713e-004 -1.03266e-003 -1.16194e-003
 -1.29588e-003 -1.43323e-003 -1.57279e-003 -1.71331e-003 -1.85360e-003
 -1.99369e-003 -2.13811e-003 -2.29234e-003 -2.46184e-003 -2.65209e-003
 -2.86850e-003 -3.11217e-003 -3.37679e-003 -3.65534e-003 -3.94083e-003
 1.22819e-003 1.16930e-003 1.10994e-003 1.04966e-003 9.88010e-004
 9.24527e-004 8.58765e-004 7.90504e-004 7.19848e-004 6.46922e-004
 5.71853e-004 4.94767e-004 4.15767e-004 3.34746e-004 2.51484e-004
 1.65759e-004 7.73499e-005 -1.39654e-005 -1.08348e-004 -2.05764e-004
 -3.06138e-004 -4.09395e-004 -5.15462e-004 -6.24269e-004 -7.35982e-004
 -8.51090e-004 -9.70101e-004 -1.09353e-003 -1.22188e-003 -1.35557e-003
 -1.49402e-003 -1.63592e-003 -1.78000e-003 -1.92497e-003 -2.06953e-003
 -2.21329e-003 -2.36055e-003 -2.51715e-003 -2.68892e-003 -2.88169e-003
 -3.10130e-003 -3.35017e-003 -3.62201e-003 -3.90912e-003 -4.20382e-003
 1.13327e-003 1.07055e-003 1.00738e-003 9.43312e-004 8.77912e-004
 8.10737e-004 7.41349e-004 6.69515e-004 5.95306e-004 5.18817e-004
 4.40143e-004 3.59379e-004 2.76603e-004 1.91717e-004 1.04508e-004
 1.47651e-005 -7.77243e-005 -1.73172e-004 -2.71744e-004 -3.73415e-004
 -4.78113e-004 -5.85763e-004 -6.96294e-004 -8.09635e-004 -9.25910e-004
 -1.04558e-003 -1.16916e-003 -1.29713e-003 -1.43001e-003 -1.56824e-003
 -1.71132e-003 -1.85795e-003 -2.00677e-003 -2.15643e-003 -2.30557e-003
 -2.45343e-003 -2.60392e-003 -2.76319e-003 -2.93742e-003 -3.13277e-003
 -3.35541e-003 -3.60902e-003 -3.88764e-003 -4.18287e-003 -4.48637e-003
 1.02616e-003 9.59232e-004 8.91864e-004 8.23628e-004 7.54096e-004
 6.82838e-004 6.09427e-004 5.33621e-004 4.55461e-004 3.75017e-004
 2.92359e-004 2.07554e-004 1.20660e-004 3.15763e-005 -5.99061e-005
 -1.54000e-004 -2.50917e-004 -3.50871e-004 -4.54032e-004 -5.60372e-004
 -6.69800e-004 -7.82223e-004 -8.97549e-004 -1.01569e-003 -1.13672e-003
 -1.26110e-003 -1.38934e-003 -1.52197e-003 -1.65948e-003 -1.80238e-003
 -1.95030e-003 -2.10188e-003 -2.25568e-003 -2.41027e-003 -2.56424e-003
 -2.71649e-003 -2.87043e-003 -3.03249e-003 -3.20920e-003 -3.40706e-003
 -3.63255e-003 -3.89049e-003 -4.17555e-003 -4.47863e-003 -4.79068e-003
 9.05215e-004 8.33709e-004 7.61771e-004 6.88980e-004 6.14914e-004
 5.39151e-004 4.61273e-004 3.81023e-004 2.98424e-004 2.13525e-004
 1.26377e-004 3.70280e-005 -5.44810e-005 -1.48245e-004 -2.44468e-004
 -3.43355e-004 -4.45114e-004 -5.49951e-004 -6.58041e-004 -7.69356e-004
 -8.83795e-004 -1.00125e-003 -1.12163e-003 -1.24482e-003 -1.37086e-003
 -1.50020e-003 -1.63335e-003 -1.77086e-003 -1.91324e-003 -2.06100e-003
 -2.21393e-003 -2.37063e-003 -2.52960e-003 -2.68933e-003 -2.84832e-003
 -3.00525e-003 -3.16291e-003 -3.32796e-003 -3.50724e-003 -3.70756e-003
 -3.93574e-003 -4.19750e-003 -4.48847e-003 -4.79891e-003 -5.11902e-003
 7.67962e-004 6.91478e-004 6.14566e-004 5.36807e-004 4.57784e-004
 3.77078e-004 2.94271e-004 2.09096e-004 1.21553e-004 3.16679e-005
 -6.05296e-005 -1.55012e-004 -2.51757e-004 -3.50843e-004 -4.52443e-004
 -5.56731e-004 -6.63883e-004 -7.74075e-004 -8.87459e-004 -1.00403e-003
 -1.12369e-003 -1.24636e-003 -1.37196e-003 -1.50038e-003 -1.63166e-003
 -1.76621e-003 -1.90454e-003 -2.04716e-003 -2.19460e-003 -2.34736e-003
 -2.50537e-003 -2.66723e-003 -2.83142e-003 -2.99639e-003 -3.16058e-003
 -3.32255e-003 -3.48438e-003 -3.65282e-003 -3.83496e-003 -4.03787e-003
 -4.26860e-003 -4.53356e-003 -4.82963e-003 -5.14648e-003 -5.47367e-003
 6.11820e-004 5.29917e-004 4.47583e-004 3.64395e-004 2.79932e-004
 1.93769e-004 1.05487e-004 1.48008e-005 -7.83034e-005 -1.73811e-004
 -2.71706e-004 -3.71973e-004 -4.74602e-004 -5.79650e-004 -6.87251e-004
 -7.97543e-004 -9.10662e-004 -1.02674e-003 -1.14591e-003 -1.26817e-003
 -1.39345e-003 -1.52167e-003 -1.65277e-003 -1.78668e-003 -1.92340e-003
 -2.06332e-003 -2.20695e-003 -2.35480e-003 -2.50739e-003 -2.66522e-003
 -2.82834e-003 -2.99543e-003 -3.16492e-003 -3.33524e-003 -3.50482e-003
 -3.67212e-003 -3.83852e-003 -4.01073e-003 -4.19598e-003 -4.40155e-003
 -4.63465e-003 -4.90218e-003 -5.20239e-003 -5.52461e-003 -5.85775e-003
 4.34194e-004 3.46318e-004 2.57992e-004 1.68772e-004 7.82143e-005
 -1.41250e-005 -1.08689e-004 -2.05771e-004 -3.05360e-004 -4.07405e-004
 -5.11855e-004 -6.18660e-004 -7.27772e-004 -8.39232e-004 -9.53180e-004
 -1.06976e-003 -1.18913e-003 -1.31142e-003 -1.43678e-003 -1.56521e-003
 -1.69663e-003 -1.83094e-003 -1.96806e-003 -2.10791e-003 -2.25045e-003
 -2.39605e-003 -2.54526e-003 -2.69859e-003 -2.85658e-003 -3.01976e-003
 -3.18830e-003 -3.36094e-003 -3.53605e-003 -3.71199e-003 -3.88714e-003
 -4.05987e-003 -4.23090e-003 -4.40676e-003 -4.59491e-003 -4.80278e-003
 -5.03781e-003 -5.30725e-003 -5.61082e-003 -5.93761e-003 -6.27593e-003
 2.30752e-004 1.35995e-004 4.07768e-005 -5.53614e-005 -1.52877e-004
 -2.52230e-004 -3.53875e-004 -4.58117e-004 -5.64914e-004 -6.74178e-004
 -7.85823e-004 -8.99763e-004 -1.01591e-003 -1.13429e-003 -1.25507e-003
 -1.37841e-003 -1.50448e-003 -1.63346e-003 -1.76550e-003 -1.90061e-003
 -2.03868e-003 -2.17959e-003 -2.32320e-003 -2.46942e-003 -2.61815e-003
 -2.76976e-003 -2.92482e-003 -3.08391e-003 -3.24761e-003 -3.41651e-003
 -3.59089e-003 -3.76955e-003 -3.95074e-003 -4.13274e-003 -4.31381e-003
 -4.49220e-003 -4.66799e-003 -4.84746e-003 -5.03825e-003 -5.24800e-003
 -5.48433e-003 -5.75481e-003 -6.06059e-003 -6.39076e-003 -6.73303e-003
 -5.28025e-006 -1.07938e-004 -2.11040e-004 -3.15029e-004 -4.20350e-004
 -5.27446e-004 -6.36762e-004 -7.48606e-004 -8.62961e-004 -9.79768e-004
 -1.09896e-003 -1.22049e-003 -1.34428e-003 -1.47036e-003 -1.59885e-003
 -1.72988e-003 -1.86360e-003 -2.00014e-003 -2.13962e-003 -2.28205e-003
 -2.42729e-003 -2.57520e-003 -2.72563e-003 -2.87845e-003 -3.03356e-003
 -3.19131e-003 -3.35235e-003 -3.51733e-003 -3.68692e-003 -3.86176e-003
 -4.04230e-003 -4.22739e-003 -4.41514e-003 -4.60366e-003 -4.79107e-003
 -4.97548e-003 -5.15636e-003 -5.33956e-003 -5.53289e-003 -5.74412e-003
 -5.98106e-003 -6.25144e-003 -6.55784e-003 -6.88957e-003 -7.23387e-003
 -2.80863e-004 -3.92413e-004 -5.04382e-004 -6.17196e-004 -7.31281e-004
 -8.47063e-004 -9.64968e-004 -1.08530e-003 -1.20809e-003 -1.33329e-003
 -1.46087e-003 -1.59081e-003 -1.72308e-003 -1.85768e-003 -1.99468e-003
 -2.13416e-003 -2.27619e-003 -2.42086e-003 -2.56823e-003 -2.71830e-003
 -2.87097e-003 -3.02612e-003 -3.18364e-003 -3.34343e-003 -3.50541e-003
 -3.66989e-003 -3.83753e-003 -4.00897e-003 -4.18489e-003 -4.36594e-003
 -4.55263e-003 -4.74392e-003 -4.93788e-003 -5.13255e-003 -5.32599e-003
 -5.51625e-003 -5.70232e-003 -5.88945e-003 -6.08541e-003 -6.29799e-003
 -6.53497e-003 -6.80410e-003 -7.10911e-003 -7.43996e-003 -7.78363e-003
 -6.03890e-004 -7.25690e-004 -8.47891e-004 -9.70909e-004 -1.09516e-003
 -1.22105e-003 -1.34901e-003 -1.47933e-003 -1.61201e-003 -1.74699e-003
 -1.88422e-003 -2.02364e-003 -2.16520e-003 -2.30887e-003 -2.45474e-003
 -2.60288e-003 -2.75337e-003 -2.90629e-003 -3.06171e-003 -3.21966e-003
 -3.38007e-003 -3.54288e-003 -3.70803e-003 -3.87546e-003 -4.04512e-003
 -4.21724e-003 -4.39238e-003 -4.57107e-003 -4.75388e-003 -4.94136e-003
 -5.13395e-003 -5.33083e-003 -5.53015e-003 -5.73008e-003 -5.92875e-003
 -6.12431e-003 -6.31555e-003 -6.50690e-003 -6.70583e-003 -6.91986e-003
 -7.15647e-003 -7.42313e-003 -7.72437e-003 -8.05117e-003 -8.39066e-003
 -9.87236e-004 -1.12082e-003 -1.25479e-003 -1.38953e-003 -1.52547e-003
 -1.66299e-003 -1.80250e-003 -1.94429e-003 -2.08831e-003 -2.23447e-003
 -2.38266e-003 -2.53279e-003 -2.68475e-003 -2.83850e-003 -2.99413e-003
 -3.15175e-003 -3.31147e-003 -3.47339e-003 -3.63762e-003 -3.80421e-003
 -3.97310e-003 -4.14424e-003 -4.31757e-003 -4.49304e-003 -4.67060e-003
 -4.85042e-003 -5.03293e-003 -5.21858e-003 -5.40782e-003 -5.60110e-003
 -5.79883e-003 -6.00038e-003 -6.20418e-003 -6.40861e-003 -6.61206e-003
 -6.81291e-003 -7.00992e-003 -7.20656e-003 -7.40954e-003 -7.62562e-003
 -7.86155e-003 -8.12406e-003 -8.41787e-003 -8.73551e-003 -9.06498e-003
 -1.44854e-003 -1.59679e-003 -1.74531e-003 -1.89441e-003 -2.04439e-003
 -2.19555e-003 -2.34821e-003 -2.50258e-003 -2.65870e-003 -2.81655e-003
 -2.97611e-003 -3.13737e-003 -3.30031e-003 -3.46494e-003 -3.63133e-003
 -3.79954e-003 -3.96966e-003 -4.14174e-003 -4.31587e-003 -4.49207e-003
 -4.67026e-003 -4.85037e-003 -5.03231e-003 -5.21601e-003 -5.40139e-003
 -5.58857e-003 -5.77795e-003 -5.96993e-003 -6.16495e-003 -6.36343e-003
 -6.56576e-003 -6.77153e-003 -6.97944e-003 -7.18810e-003 -7.39614e-003
 -7.60218e-003 -7.80507e-003 -8.00726e-003 -8.21437e-003 -8.43207e-003
 -8.66607e-003 -8.92204e-003 -9.20436e-003 -9.50736e-003 -9.82065e-003
 -2.02234e-003 -2.18642e-003 -2.35066e-003 -2.51527e-003 -2.68044e-003
 -2.84637e-003 -3.01326e-003 -3.18128e-003 -3.35052e-003 -3.52105e-003
 -3.69295e-003 -3.86628e-003 -4.04111e-003 -4.21751e-003 -4.39547e-003
 -4.57500e-003 -4.75608e-003 -4.93873e-003 -5.12293e-003 -5.30869e-003
 -5.49600e-003 -5.68486e-003 -5.87526e-003 -6.06720e-003 -6.26068e-003
 -6.45578e-003 -6.65275e-003 -6.85183e-003 -7.05329e-003 -7.25737e-003
 -7.46433e-003 -7.67390e-003 -7.88506e-003 -8.09677e-003 -8.30796e-003
 -8.51757e-003 -8.72466e-003 -8.93081e-003 -9.14036e-003 -9.35773e-003
 -9.58735e-003 -9.83365e-003 -1.01003e-002 -1.03834e-002 -1.06748e-002
 -2.74856e-003 -2.92917e-003 -3.10993e-003 -3.29102e-003 -3.47261e-003
 -3.65489e-003 -3.83802e-003 -4.02215e-003 -4.20728e-003 -4.39338e-003
 -4.58040e-003 -4.76833e-003 -4.95713e-003 -5.14677e-003 -5.33727e-003
 -5.52864e-003 -5.72088e-003 -5.91400e-003 -6.10803e-003 -6.30298e-003
 -6.49894e-003 -6.69598e-003 -6.89419e-003 -7.09366e-003 -7.29446e-003
 -7.49665e-003 -7.70023e-003 -7.90518e-003 -8.11149e-003 -8.31916e-003
 -8.52816e-003 -8.73835e-003 -8.94936e-003 -9.16080e-003 -9.37225e-003
 -9.58334e-003 -9.79370e-003 -1.00041e-002 -1.02168e-002 -1.04341e-002
 -1.06582e-002 -1.08916e-002 -1.11362e-002 -1.13901e-002 -1.16486e-002
 -4.20599e-003 -4.39065e-003 -4.57545e-003 -4.76050e-003 -4.94595e-003
 -5.13193e-003 -5.31855e-003 -5.50593e-003 -5.69404e-003 -5.88280e-003